 Gaussian 09, Revision D.01,
 Gaussian 09:  ES64L-G09RevD.01 24-Apr-2013

 ----------------------------
 #p b3lyp/6-31g* freq=noraman
 ----------------------------

 ----------------------
 ground state structure
 ----------------------
 Symbolic Z-matrix:
 Charge =  0 Multiplicity = 1

                         Standard orientation:
 ---------------------------------------------------------------------
 Center     Atomic      Atomic             Coordinates (Angstroms)
 Number     Number       Type             X           Y           Z
 ---------------------------------------------------------------------
      1          6           0        2.529357    0.361330   -0.000020
      2          6           0        1.650985   -0.646172   -0.000002
      3          8           0        0.294333   -0.586301    0.000029
      4          6           0       -0.296838    0.704706    0.000021
      5          6           0       -1.792958    0.591589   -0.000009
      6          6           0       -2.486162   -0.545043   -0.000017
      7          1           0        3.588621    0.131739   -0.000045
      8          1           0        2.248176    1.407720   -0.000013
      9          1           0        1.967584   -1.685756   -0.000009
     10          1           0        0.043549    1.268971   -0.883806
     11          1           0        0.043514    1.268967    0.883863
     12          1           0       -2.309465    1.551442   -0.000020
     13          1           0       -3.572272   -0.540878   -0.000037
     14          1           0       -1.990668   -1.510251   -0.000004
 ---------------------------------------------------------------------

 SCF Done:  E(RB3LYP) =  -270.507231818     A.U. after   14 cycles

 The electronic state is 1-A.
 Alpha  occ. eigenvalues --  -19.17906 -10.24615 -10.23949 -10.19346 -10.17863
 Alpha  occ. eigenvalues --  -10.16888  -1.06474  -0.79529  -0.74153  -0.69381
 Alpha  occ. eigenvalues --   -0.59693  -0.53849  -0.51332  -0.47290  -0.47231
 Alpha  occ. eigenvalues --   -0.44604  -0.41090  -0.38121  -0.35312  -0.34905
 Alpha  occ. eigenvalues --   -0.33642  -0.25713  -0.22784
 Alpha virt. eigenvalues --    0.02127   0.04230   0.10023   0.11555   0.12830
 Alpha virt. eigenvalues --    0.14679   0.16002   0.17122   0.17239   0.19284
 Alpha virt. eigenvalues --    0.21116   0.29225   0.30076   0.35683   0.36632

 Mulliken charges:
               1
     1  C   -0.401328
     2  C    0.160114
     3  O   -0.446946
     4  C   -0.054628
     5  C   -0.100437
     6  C   -0.317290
     7  H    0.142906
     8  H    0.141309
     9  H    0.142889
    10  H    0.150628
    11  H    0.150629
    12  H    0.132450
    13  H    0.139563
    14  H    0.160140
 Sum of Mulliken charges =   0.00000

 Dipole moment (field-independent basis, Debye):
    X=             -0.0844    Y=              0.8535    Z=              0.0000  Tot=              0.8576
 Quadrupole moment (field-independent basis, Debye-Ang):
   XX=            -34.5257   YY=            -33.4993   ZZ=            -39.5086
   XY=             -1.4202   XZ=              0.0000   YZ=              0.0000

  Exact polarizability:  75.884   8.562  59.349   0.000   0.000  27.441
 Approx polarizability:  94.910  22.312  95.112   0.000   0.000  38.714

                      1                      2                      3
                      A                      A                      A
 Frequencies --     70.5022               166.0917               186.7037
 Red. masses --      4.2514                 1.6589                 3.1897
 Frc consts  --      0.0125                 0.0270                 0.0655
 IR Inten    --      0.2710                 0.0629                 0.2408

                      4                      5                      6
                      A                      A                      A
 Frequencies --    256.4151               287.5705               555.3827
 Red. masses --      1.7840                 3.7447                 2.7567
 Frc consts  --      0.0691                 0.1825                 0.5010
 IR Inten    --      7.3157                 1.4965                 1.8850

                      7                      8                      9
                      A                      A                      A
 Frequencies --    573.5385               619.8699               717.2112
 Red. masses --      1.2464                 2.3464                 1.5526
 Frc consts  --      0.2416                 0.5312                 0.4705
 IR Inten    --      8.7804                 0.1641                 0.6210

                     10                     11                     12
                      A                      A                      A
 Frequencies --    825.1253               934.3315               948.1156
 Red. masses --      1.3515                 2.9449                 1.3345
 Frc consts  --      0.5421                 1.5147                 0.7068
 IR Inten    --     59.2454                 2.7347                33.7780

                     13                     14                     15
                      A                      A                      A
 Frequencies --    955.6648               997.1455              1031.8868
 Red. masses --      2.2056                 1.1515                 1.0514
 Frc consts  --      1.1868                 0.6746                 0.6596
 IR Inten    --     12.7219                12.7973                 9.4125

                     16                     17                     18
                      A                      A                      A
 Frequencies --   1040.3148              1058.8519              1124.2384
 Red. masses --      1.8906                 1.6665                 1.8281
 Frc consts  --      1.2055                 1.1009                 1.3613
 IR Inten    --     41.2035                12.1341                15.8441

                     19                     20                     21
                      A                      A                      A
 Frequencies --   1256.4441              1272.0608              1334.3906
 Red. masses --      3.9983                 1.0715                 1.2831
 Frc consts  --      3.7188                 1.0215                 1.3461
 IR Inten    --    193.8766                 0.5399                 3.1766

                     22                     23                     24
                      A                      A                      A
 Frequencies --   1373.2759              1428.5521              1467.3647
 Red. masses --      1.2745                 1.3491                 1.2592
 Frc consts  --      1.4161                 1.6221                 1.5974
 IR Inten    --     54.8345                25.7778                 5.3011

                     25                     26                     27
                      A                      A                      A
 Frequencies --   1469.9680              1530.6804              1712.8679
 Red. masses --      1.2001                 1.0766                 4.2790
 Frc consts  --      1.5279                 1.4862                 7.3967
 IR Inten    --      4.8011                14.4676               162.2016

                     28                     29                     30
                      A                      A                      A
 Frequencies --   1743.6894              2989.2315              3012.7620
 Red. masses --      4.6719                 1.0553                 1.1054
 Frc consts  --      8.3692                 5.5555                 5.9114
 IR Inten    --      1.1296                23.3521                42.3859

                     31                     32                     33
                      A                      A                      A
 Frequencies --   3159.7776              3181.2872              3195.1133
 Red. masses --      1.0815                 1.0684                 1.0608
 Frc consts  --      6.3617                 6.3710                 6.3802
 IR Inten    --     15.0634                 9.1466                 6.9882

                     34                     35                     36
                      A                      A                      A
 Frequencies --   3209.7538              3263.8154              3278.4107
 Red. masses --      1.0923                 1.1160                 1.1161
 Frc consts  --      6.6301                 7.0043                 7.0680
 IR Inten    --      9.2844                11.0734                12.8349

 - Thermochemistry -
 -------------------
 Temperature   298.150 Kelvin.  Pressure   1.00000 Atm.
 Atom     1 has atomic number  6 and mass  12.00000

 Molecular mass:    84.05751 amu.
 Principal axes and moments of inertia in atomic units:
                           1         2         3
     Eigenvalues --   144.49326 965.861771099.10938
           X            0.99997   0.00771   0.00000
           Y           -0.00771   0.99997   0.00000
           Z            0.00000   0.00000   1.00000
 This molecule is an asymmetric top.
 Rotational symmetry number  1.
 Rotational temperatures (Kelvin)      0.59943     0.08968     0.07880
 Rotational constants (GHZ):          12.49014     1.86853     1.64200
 Zero-point vibrational energy     312395.2 (Joules/Mol)
                                   74.66425 (Kcal/Mol)
 Warning -- explicit consideration of   8 degrees of freedom as
           vibrations may cause significant error
 Vibrational temperatures:    101.44   238.97   268.62   368.92   413.75
          (Kelvin)            799.07   825.19   891.85  1031.91  1187.17
                             1344.29  1364.13  1374.99  1434.67  1484.65
                             1496.78  1523.45  1617.53  1807.74  1830.21
                             1919.89  1975.84  2055.37  2111.21  2114.95
                             2202.30  2464.43  2508.78  4300.83  4334.69
                             4546.21  4577.16  4597.05  4618.11  4695.90
                             4716.90

 Zero-point correction=                           0.118985 (Hartree/Particle)
 Thermal correction to Energy=                    0.125769
 Thermal correction to Enthalpy=                  0.126713
 Thermal correction to Gibbs Free Energy=         0.088412
 Sum of electronic and zero-point Energies=           -270.388247
 Sum of electronic and thermal Energies=              -270.381463
 Sum of electronic and thermal Enthalpies=            -270.380519
 Sum of electronic and thermal Free Energies=         -270.418820

                     E (Thermal)             CV                S
                      KCal/Mol        Cal/Mol-Kelvin    Cal/Mol-Kelvin
 Total                   78.921             23.669             80.610
 Electronic               0.000              0.000              0.000
 Translational            0.889              2.981             39.200
 Rotational               0.889              2.981             26.531
 Vibrational             77.144             17.708             14.879
 Vibration     1          0.598              1.968              4.139
 Vibration     2          0.624              1.884              2.479
 Vibration     3          0.632              1.858              2.260
 Vibration     4          0.666              1.752              1.686
 Vibration     5          0.685              1.697              1.488
 Vibration     6          0.911              1.128              0.533
 Vibration     7          0.930              1.088              0.497
 Vibration     8          0.980              0.990              0.417

 Optimization completed.
    -- Stationary point found.
 Normal termination of Gaussian 09 at Wed Nov 18 14:34:58 2015.
